V -t * -v 1.0a5 -a 0
A -t * -n 1 -p 0 -o 0x7fffffff -c 30 -a 1
A -t * -h 1 -m 1073741823 -s 0
c -t * -i 0 -n red
c -t * -i 1 -n blue
n -t * -a 4 -s 4 -S UP -v circle -c black -i black
n -t * -a 0 -s 0 -S UP -v circle -c black -i black
n -t * -a 5 -s 5 -S UP -v circle -c black -i black
n -t * -a 1 -s 1 -S UP -v circle -c black -i black
n -t * -a 2 -s 2 -S UP -v circle -c black -i black
n -t * -a 3 -s 3 -S UP -v circle -c black -i black
l -t * -s 0 -d 1 -S UP -r 5000000 -D 0.002 -c black
l -t * -s 1 -d 2 -S UP -r 10000000 -D 0.0060000000000000001 -c black
l -t * -s 1 -d 4 -S UP -r 3000000 -D 0.002 -c black
l -t * -s 4 -d 3 -S UP -r 100000000 -D 0.002 -c black
l -t * -s 4 -d 5 -S UP -r 4000000 -D 0.01 -c black
+ -t 1 -s 0 -d 1 -p cbr -e 210 -c 0 -i 0 -a 0 -x {0.0 3.0 0 ------- null}
- -t 1 -s 0 -d 1 -p cbr -e 210 -c 0 -i 0 -a 0 -x {0.0 3.0 0 ------- null}
h -t 1 -s 0 -d 1 -p cbr -e 210 -c 0 -i 0 -a 0 -x {0.0 3.0 -1 ------- null}
r -t 1.002336 -s 0 -d 1 -p cbr -e 210 -c 0 -i 0 -a 0 -x {0.0 3.0 0 ------- null}
+ -t 1.002336 -s 1 -d 4 -p cbr -e 210 -c 0 -i 0 -a 0 -x {0.0 3.0 0 ------- null}
- -t 1.002336 -s 1 -d 4 -p cbr -e 210 -c 0 -i 0 -a 0 -x {0.0 3.0 0 ------- null}
h -t 1.002336 -s 1 -d 4 -p cbr -e 210 -c 0 -i 0 -a 0 -x {0.0 3.0 -1 ------- null}
+ -t 1.00375 -s 0 -d 1 -p cbr -e 210 -c 0 -i 1 -a 0 -x {0.0 3.0 1 ------- null}
- -t 1.00375 -s 0 -d 1 -p cbr -e 210 -c 0 -i 1 -a 0 -x {0.0 3.0 1 ------- null}
h -t 1.00375 -s 0 -d 1 -p cbr -e 210 -c 0 -i 1 -a 0 -x {0.0 3.0 -1 ------- null}
r -t 1.004896 -s 1 -d 4 -p cbr -e 210 -c 0 -i 0 -a 0 -x {0.0 3.0 0 ------- null}
+ -t 1.004896 -s 4 -d 3 -p cbr -e 210 -c 0 -i 0 -a 0 -x {0.0 3.0 0 ------- null}
- -t 1.004896 -s 4 -d 3 -p cbr -e 210 -c 0 -i 0 -a 0 -x {0.0 3.0 0 ------- null}
h -t 1.004896 -s 4 -d 3 -p cbr -e 210 -c 0 -i 0 -a 0 -x {0.0 3.0 -1 ------- null}
r -t 1.006086 -s 0 -d 1 -p cbr -e 210 -c 0 -i 1 -a 0 -x {0.0 3.0 1 ------- null}
+ -t 1.006086 -s 1 -d 4 -p cbr -e 210 -c 0 -i 1 -a 0 -x {0.0 3.0 1 ------- null}
- -t 1.006086 -s 1 -d 4 -p cbr -e 210 -c 0 -i 1 -a 0 -x {0.0 3.0 1 ------- null}
h -t 1.006086 -s 1 -d 4 -p cbr -e 210 -c 0 -i 1 -a 0 -x {0.0 3.0 -1 ------- null}
r -t 1.0069128 -s 4 -d 3 -p cbr -e 210 -c 0 -i 0 -a 0 -x {0.0 3.0 0 ------- null}
+ -t 1.0075 -s 0 -d 1 -p cbr -e 210 -c 0 -i 2 -a 0 -x {0.0 3.0 2 ------- null}
- -t 1.0075 -s 0 -d 1 -p cbr -e 210 -c 0 -i 2 -a 0 -x {0.0 3.0 2 ------- null}
h -t 1.0075 -s 0 -d 1 -p cbr -e 210 -c 0 -i 2 -a 0 -x {0.0 3.0 -1 ------- null}
r -t 1.008646 -s 1 -d 4 -p cbr -e 210 -c 0 -i 1 -a 0 -x {0.0 3.0 1 ------- null}
+ -t 1.008646 -s 4 -d 3 -p cbr -e 210 -c 0 -i 1 -a 0 -x {0.0 3.0 1 ------- null}
- -t 1.008646 -s 4 -d 3 -p cbr -e 210 -c 0 -i 1 -a 0 -x {0.0 3.0 1 ------- null}
h -t 1.008646 -s 4 -d 3 -p cbr -e 210 -c 0 -i 1 -a 0 -x {0.0 3.0 -1 ------- null}
r -t 1.009836 -s 0 -d 1 -p cbr -e 210 -c 0 -i 2 -a 0 -x {0.0 3.0 2 ------- null}
+ -t 1.009836 -s 1 -d 4 -p cbr -e 210 -c 0 -i 2 -a 0 -x {0.0 3.0 2 ------- null}
- -t 1.009836 -s 1 -d 4 -p cbr -e 210 -c 0 -i 2 -a 0 -x {0.0 3.0 2 ------- null}
h -t 1.009836 -s 1 -d 4 -p cbr -e 210 -c 0 -i 2 -a 0 -x {0.0 3.0 -1 ------- null}
r -t 1.0106628 -s 4 -d 3 -p cbr -e 210 -c 0 -i 1 -a 0 -x {0.0 3.0 1 ------- null}
+ -t 1.01125 -s 0 -d 1 -p cbr -e 210 -c 0 -i 3 -a 0 -x {0.0 3.0 3 ------- null}
- -t 1.01125 -s 0 -d 1 -p cbr -e 210 -c 0 -i 3 -a 0 -x {0.0 3.0 3 ------- null}
h -t 1.01125 -s 0 -d 1 -p cbr -e 210 -c 0 -i 3 -a 0 -x {0.0 3.0 -1 ------- null}
r -t 1.012396 -s 1 -d 4 -p cbr -e 210 -c 0 -i 2 -a 0 -x {0.0 3.0 2 ------- null}
+ -t 1.012396 -s 4 -d 3 -p cbr -e 210 -c 0 -i 2 -a 0 -x {0.0 3.0 2 ------- null}
- -t 1.012396 -s 4 -d 3 -p cbr -e 210 -c 0 -i 2 -a 0 -x {0.0 3.0 2 ------- null}
h -t 1.012396 -s 4 -d 3 -p cbr -e 210 -c 0 -i 2 -a 0 -x {0.0 3.0 -1 ------- null}
r -t 1.013586 -s 0 -d 1 -p cbr -e 210 -c 0 -i 3 -a 0 -x {0.0 3.0 3 ------- null}
+ -t 1.013586 -s 1 -d 4 -p cbr -e 210 -c 0 -i 3 -a 0 -x {0.0 3.0 3 ------- null}
- -t 1.013586 -s 1 -d 4 -p cbr -e 210 -c 0 -i 3 -a 0 -x {0.0 3.0 3 ------- null}
h -t 1.013586 -s 1 -d 4 -p cbr -e 210 -c 0 -i 3 -a 0 -x {0.0 3.0 -1 ------- null}
r -t 1.0144128 -s 4 -d 3 -p cbr -e 210 -c 0 -i 2 -a 0 -x {0.0 3.0 2 ------- null}
+ -t 1.015 -s 0 -d 1 -p cbr -e 210 -c 0 -i 4 -a 0 -x {0.0 3.0 4 ------- null}
- -t 1.015 -s 0 -d 1 -p cbr -e 210 -c 0 -i 4 -a 0 -x {0.0 3.0 4 ------- null}
h -t 1.015 -s 0 -d 1 -p cbr -e 210 -c 0 -i 4 -a 0 -x {0.0 3.0 -1 ------- null}
r -t 1.016146 -s 1 -d 4 -p cbr -e 210 -c 0 -i 3 -a 0 -x {0.0 3.0 3 ------- null}
+ -t 1.016146 -s 4 -d 3 -p cbr -e 210 -c 0 -i 3 -a 0 -x {0.0 3.0 3 ------- null}
- -t 1.016146 -s 4 -d 3 -p cbr -e 210 -c 0 -i 3 -a 0 -x {0.0 3.0 3 ------- null}
h -t 1.016146 -s 4 -d 3 -p cbr -e 210 -c 0 -i 3 -a 0 -x {0.0 3.0 -1 ------- null}
r -t 1.017336 -s 0 -d 1 -p cbr -e 210 -c 0 -i 4 -a 0 -x {0.0 3.0 4 ------- null}
+ -t 1.017336 -s 1 -d 4 -p cbr -e 210 -c 0 -i 4 -a 0 -x {0.0 3.0 4 ------- null}
- -t 1.017336 -s 1 -d 4 -p cbr -e 210 -c 0 -i 4 -a 0 -x {0.0 3.0 4 ------- null}
h -t 1.017336 -s 1 -d 4 -p cbr -e 210 -c 0 -i 4 -a 0 -x {0.0 3.0 -1 ------- null}
r -t 1.0181628 -s 4 -d 3 -p cbr -e 210 -c 0 -i 3 -a 0 -x {0.0 3.0 3 ------- null}
+ -t 1.01875 -s 0 -d 1 -p cbr -e 210 -c 0 -i 5 -a 0 -x {0.0 3.0 5 ------- null}
- -t 1.01875 -s 0 -d 1 -p cbr -e 210 -c 0 -i 5 -a 0 -x {0.0 3.0 5 ------- null}
h -t 1.01875 -s 0 -d 1 -p cbr -e 210 -c 0 -i 5 -a 0 -x {0.0 3.0 -1 ------- null}
r -t 1.019896 -s 1 -d 4 -p cbr -e 210 -c 0 -i 4 -a 0 -x {0.0 3.0 4 ------- null}
+ -t 1.019896 -s 4 -d 3 -p cbr -e 210 -c 0 -i 4 -a 0 -x {0.0 3.0 4 ------- null}
- -t 1.019896 -s 4 -d 3 -p cbr -e 210 -c 0 -i 4 -a 0 -x {0.0 3.0 4 ------- null}
h -t 1.019896 -s 4 -d 3 -p cbr -e 210 -c 0 -i 4 -a 0 -x {0.0 3.0 -1 ------- null}
r -t 1.021086 -s 0 -d 1 -p cbr -e 210 -c 0 -i 5 -a 0 -x {0.0 3.0 5 ------- null}
+ -t 1.021086 -s 1 -d 4 -p cbr -e 210 -c 0 -i 5 -a 0 -x {0.0 3.0 5 ------- null}
- -t 1.021086 -s 1 -d 4 -p cbr -e 210 -c 0 -i 5 -a 0 -x {0.0 3.0 5 ------- null}
h -t 1.021086 -s 1 -d 4 -p cbr -e 210 -c 0 -i 5 -a 0 -x {0.0 3.0 -1 ------- null}
r -t 1.0219128 -s 4 -d 3 -p cbr -e 210 -c 0 -i 4 -a 0 -x {0.0 3.0 4 ------- null}
+ -t 1.0225 -s 0 -d 1 -p cbr -e 210 -c 0 -i 6 -a 0 -x {0.0 3.0 6 ------- null}
- -t 1.0225 -s 0 -d 1 -p cbr -e 210 -c 0 -i 6 -a 0 -x {0.0 3.0 6 ------- null}
h -t 1.0225 -s 0 -d 1 -p cbr -e 210 -c 0 -i 6 -a 0 -x {0.0 3.0 -1 ------- null}
r -t 1.023646 -s 1 -d 4 -p cbr -e 210 -c 0 -i 5 -a 0 -x {0.0 3.0 5 ------- null}
+ -t 1.023646 -s 4 -d 3 -p cbr -e 210 -c 0 -i 5 -a 0 -x {0.0 3.0 5 ------- null}
- -t 1.023646 -s 4 -d 3 -p cbr -e 210 -c 0 -i 5 -a 0 -x {0.0 3.0 5 ------- null}
h -t 1.023646 -s 4 -d 3 -p cbr -e 210 -c 0 -i 5 -a 0 -x {0.0 3.0 -1 ------- null}
r -t 1.024836 -s 0 -d 1 -p cbr -e 210 -c 0 -i 6 -a 0 -x {0.0 3.0 6 ------- null}
+ -t 1.024836 -s 1 -d 4 -p cbr -e 210 -c 0 -i 6 -a 0 -x {0.0 3.0 6 ------- null}
- -t 1.024836 -s 1 -d 4 -p cbr -e 210 -c 0 -i 6 -a 0 -x {0.0 3.0 6 ------- null}
h -t 1.024836 -s 1 -d 4 -p cbr -e 210 -c 0 -i 6 -a 0 -x {0.0 3.0 -1 ------- null}
r -t 1.0256628 -s 4 -d 3 -p cbr -e 210 -c 0 -i 5 -a 0 -x {0.0 3.0 5 ------- null}
+ -t 1.02625 -s 0 -d 1 -p cbr -e 210 -c 0 -i 7 -a 0 -x {0.0 3.0 7 ------- null}
- -t 1.02625 -s 0 -d 1 -p cbr -e 210 -c 0 -i 7 -a 0 -x {0.0 3.0 7 ------- null}
h -t 1.02625 -s 0 -d 1 -p cbr -e 210 -c 0 -i 7 -a 0 -x {0.0 3.0 -1 ------- null}
r -t 1.027396 -s 1 -d 4 -p cbr -e 210 -c 0 -i 6 -a 0 -x {0.0 3.0 6 ------- null}
+ -t 1.027396 -s 4 -d 3 -p cbr -e 210 -c 0 -i 6 -a 0 -x {0.0 3.0 6 ------- null}
- -t 1.027396 -s 4 -d 3 -p cbr -e 210 -c 0 -i 6 -a 0 -x {0.0 3.0 6 ------- null}
h -t 1.027396 -s 4 -d 3 -p cbr -e 210 -c 0 -i 6 -a 0 -x {0.0 3.0 -1 ------- null}
r -t 1.028586 -s 0 -d 1 -p cbr -e 210 -c 0 -i 7 -a 0 -x {0.0 3.0 7 ------- null}
+ -t 1.028586 -s 1 -d 4 -p cbr -e 210 -c 0 -i 7 -a 0 -x {0.0 3.0 7 ------- null}
- -t 1.028586 -s 1 -d 4 -p cbr -e 210 -c 0 -i 7 -a 0 -x {0.0 3.0 7 ------- null}
h -t 1.028586 -s 1 -d 4 -p cbr -e 210 -c 0 -i 7 -a 0 -x {0.0 3.0 -1 ------- null}
r -t 1.0294128 -s 4 -d 3 -p cbr -e 210 -c 0 -i 6 -a 0 -x {0.0 3.0 6 ------- null}
+ -t 1.03 -s 0 -d 1 -p cbr -e 210 -c 0 -i 8 -a 0 -x {0.0 3.0 8 ------- null}
- -t 1.03 -s 0 -d 1 -p cbr -e 210 -c 0 -i 8 -a 0 -x {0.0 3.0 8 ------- null}
h -t 1.03 -s 0 -d 1 -p cbr -e 210 -c 0 -i 8 -a 0 -x {0.0 3.0 -1 ------- null}
r -t 1.031146 -s 1 -d 4 -p cbr -e 210 -c 0 -i 7 -a 0 -x {0.0 3.0 7 ------- null}
+ -t 1.031146 -s 4 -d 3 -p cbr -e 210 -c 0 -i 7 -a 0 -x {0.0 3.0 7 ------- null}
- -t 1.031146 -s 4 -d 3 -p cbr -e 210 -c 0 -i 7 -a 0 -x {0.0 3.0 7 ------- null}
h -t 1.031146 -s 4 -d 3 -p cbr -e 210 -c 0 -i 7 -a 0 -x {0.0 3.0 -1 ------- null}
r -t 1.032336 -s 0 -d 1 -p cbr -e 210 -c 0 -i 8 -a 0 -x {0.0 3.0 8 ------- null}
+ -t 1.032336 -s 1 -d 4 -p cbr -e 210 -c 0 -i 8 -a 0 -x {0.0 3.0 8 ------- null}
- -t 1.032336 -s 1 -d 4 -p cbr -e 210 -c 0 -i 8 -a 0 -x {0.0 3.0 8 ------- null}
h -t 1.032336 -s 1 -d 4 -p cbr -e 210 -c 0 -i 8 -a 0 -x {0.0 3.0 -1 ------- null}
r -t 1.0331628 -s 4 -d 3 -p cbr -e 210 -c 0 -i 7 -a 0 -x {0.0 3.0 7 ------- null}
+ -t 1.03375 -s 0 -d 1 -p cbr -e 210 -c 0 -i 9 -a 0 -x {0.0 3.0 9 ------- null}
- -t 1.03375 -s 0 -d 1 -p cbr -e 210 -c 0 -i 9 -a 0 -x {0.0 3.0 9 ------- null}
h -t 1.03375 -s 0 -d 1 -p cbr -e 210 -c 0 -i 9 -a 0 -x {0.0 3.0 -1 ------- null}
r -t 1.034896 -s 1 -d 4 -p cbr -e 210 -c 0 -i 8 -a 0 -x {0.0 3.0 8 ------- null}
+ -t 1.034896 -s 4 -d 3 -p cbr -e 210 -c 0 -i 8 -a 0 -x {0.0 3.0 8 ------- null}
- -t 1.034896 -s 4 -d 3 -p cbr -e 210 -c 0 -i 8 -a 0 -x {0.0 3.0 8 ------- null}
h -t 1.034896 -s 4 -d 3 -p cbr -e 210 -c 0 -i 8 -a 0 -x {0.0 3.0 -1 ------- null}
r -t 1.036086 -s 0 -d 1 -p cbr -e 210 -c 0 -i 9 -a 0 -x {0.0 3.0 9 ------- null}
+ -t 1.036086 -s 1 -d 4 -p cbr -e 210 -c 0 -i 9 -a 0 -x {0.0 3.0 9 ------- null}
- -t 1.036086 -s 1 -d 4 -p cbr -e 210 -c 0 -i 9 -a 0 -x {0.0 3.0 9 ------- null}
h -t 1.036086 -s 1 -d 4 -p cbr -e 210 -c 0 -i 9 -a 0 -x {0.0 3.0 -1 ------- null}
r -t 1.0369128 -s 4 -d 3 -p cbr -e 210 -c 0 -i 8 -a 0 -x {0.0 3.0 8 ------- null}
+ -t 1.0375 -s 0 -d 1 -p cbr -e 210 -c 0 -i 10 -a 0 -x {0.0 3.0 10 ------- null}
- -t 1.0375 -s 0 -d 1 -p cbr -e 210 -c 0 -i 10 -a 0 -x {0.0 3.0 10 ------- null}
h -t 1.0375 -s 0 -d 1 -p cbr -e 210 -c 0 -i 10 -a 0 -x {0.0 3.0 -1 ------- null}
r -t 1.038646 -s 1 -d 4 -p cbr -e 210 -c 0 -i 9 -a 0 -x {0.0 3.0 9 ------- null}
+ -t 1.038646 -s 4 -d 3 -p cbr -e 210 -c 0 -i 9 -a 0 -x {0.0 3.0 9 ------- null}
- -t 1.038646 -s 4 -d 3 -p cbr -e 210 -c 0 -i 9 -a 0 -x {0.0 3.0 9 ------- null}
h -t 1.038646 -s 4 -d 3 -p cbr -e 210 -c 0 -i 9 -a 0 -x {0.0 3.0 -1 ------- null}
r -t 1.039836 -s 0 -d 1 -p cbr -e 210 -c 0 -i 10 -a 0 -x {0.0 3.0 10 ------- null}
+ -t 1.039836 -s 1 -d 4 -p cbr -e 210 -c 0 -i 10 -a 0 -x {0.0 3.0 10 ------- null}
- -t 1.039836 -s 1 -d 4 -p cbr -e 210 -c 0 -i 10 -a 0 -x {0.0 3.0 10 ------- null}
h -t 1.039836 -s 1 -d 4 -p cbr -e 210 -c 0 -i 10 -a 0 -x {0.0 3.0 -1 ------- null}
r -t 1.0406628 -s 4 -d 3 -p cbr -e 210 -c 0 -i 9 -a 0 -x {0.0 3.0 9 ------- null}
+ -t 1.04125 -s 0 -d 1 -p cbr -e 210 -c 0 -i 11 -a 0 -x {0.0 3.0 11 ------- null}
- -t 1.04125 -s 0 -d 1 -p cbr -e 210 -c 0 -i 11 -a 0 -x {0.0 3.0 11 ------- null}
h -t 1.04125 -s 0 -d 1 -p cbr -e 210 -c 0 -i 11 -a 0 -x {0.0 3.0 -1 ------- null}
r -t 1.042396 -s 1 -d 4 -p cbr -e 210 -c 0 -i 10 -a 0 -x {0.0 3.0 10 ------- null}
+ -t 1.042396 -s 4 -d 3 -p cbr -e 210 -c 0 -i 10 -a 0 -x {0.0 3.0 10 ------- null}
- -t 1.042396 -s 4 -d 3 -p cbr -e 210 -c 0 -i 10 -a 0 -x {0.0 3.0 10 ------- null}
h -t 1.042396 -s 4 -d 3 -p cbr -e 210 -c 0 -i 10 -a 0 -x {0.0 3.0 -1 ------- null}
r -t 1.043586 -s 0 -d 1 -p cbr -e 210 -c 0 -i 11 -a 0 -x {0.0 3.0 11 ------- null}
+ -t 1.043586 -s 1 -d 4 -p cbr -e 210 -c 0 -i 11 -a 0 -x {0.0 3.0 11 ------- null}
- -t 1.043586 -s 1 -d 4 -p cbr -e 210 -c 0 -i 11 -a 0 -x {0.0 3.0 11 ------- null}
h -t 1.043586 -s 1 -d 4 -p cbr -e 210 -c 0 -i 11 -a 0 -x {0.0 3.0 -1 ------- null}
r -t 1.0444128 -s 4 -d 3 -p cbr -e 210 -c 0 -i 10 -a 0 -x {0.0 3.0 10 ------- null}
+ -t 1.045 -s 0 -d 1 -p cbr -e 210 -c 0 -i 12 -a 0 -x {0.0 3.0 12 ------- null}
- -t 1.045 -s 0 -d 1 -p cbr -e 210 -c 0 -i 12 -a 0 -x {0.0 3.0 12 ------- null}
h -t 1.045 -s 0 -d 1 -p cbr -e 210 -c 0 -i 12 -a 0 -x {0.0 3.0 -1 ------- null}
r -t 1.046146 -s 1 -d 4 -p cbr -e 210 -c 0 -i 11 -a 0 -x {0.0 3.0 11 ------- null}
+ -t 1.046146 -s 4 -d 3 -p cbr -e 210 -c 0 -i 11 -a 0 -x {0.0 3.0 11 ------- null}
- -t 1.046146 -s 4 -d 3 -p cbr -e 210 -c 0 -i 11 -a 0 -x {0.0 3.0 11 ------- null}
h -t 1.046146 -s 4 -d 3 -p cbr -e 210 -c 0 -i 11 -a 0 -x {0.0 3.0 -1 ------- null}
r -t 1.047336 -s 0 -d 1 -p cbr -e 210 -c 0 -i 12 -a 0 -x {0.0 3.0 12 ------- null}
+ -t 1.047336 -s 1 -d 4 -p cbr -e 210 -c 0 -i 12 -a 0 -x {0.0 3.0 12 ------- null}
- -t 1.047336 -s 1 -d 4 -p cbr -e 210 -c 0 -i 12 -a 0 -x {0.0 3.0 12 ------- null}
h -t 1.047336 -s 1 -d 4 -p cbr -e 210 -c 0 -i 12 -a 0 -x {0.0 3.0 -1 ------- null}
r -t 1.0481628 -s 4 -d 3 -p cbr -e 210 -c 0 -i 11 -a 0 -x {0.0 3.0 11 ------- null}
+ -t 1.04875 -s 0 -d 1 -p cbr -e 210 -c 0 -i 13 -a 0 -x {0.0 3.0 13 ------- null}
- -t 1.04875 -s 0 -d 1 -p cbr -e 210 -c 0 -i 13 -a 0 -x {0.0 3.0 13 ------- null}
h -t 1.04875 -s 0 -d 1 -p cbr -e 210 -c 0 -i 13 -a 0 -x {0.0 3.0 -1 ------- null}
r -t 1.049896 -s 1 -d 4 -p cbr -e 210 -c 0 -i 12 -a 0 -x {0.0 3.0 12 ------- null}
+ -t 1.049896 -s 4 -d 3 -p cbr -e 210 -c 0 -i 12 -a 0 -x {0.0 3.0 12 ------- null}
- -t 1.049896 -s 4 -d 3 -p cbr -e 210 -c 0 -i 12 -a 0 -x {0.0 3.0 12 ------- null}
h -t 1.049896 -s 4 -d 3 -p cbr -e 210 -c 0 -i 12 -a 0 -x {0.0 3.0 -1 ------- null}
r -t 1.051086 -s 0 -d 1 -p cbr -e 210 -c 0 -i 13 -a 0 -x {0.0 3.0 13 ------- null}
+ -t 1.051086 -s 1 -d 4 -p cbr -e 210 -c 0 -i 13 -a 0 -x {0.0 3.0 13 ------- null}
- -t 1.051086 -s 1 -d 4 -p cbr -e 210 -c 0 -i 13 -a 0 -x {0.0 3.0 13 ------- null}
h -t 1.051086 -s 1 -d 4 -p cbr -e 210 -c 0 -i 13 -a 0 -x {0.0 3.0 -1 ------- null}
r -t 1.0519128 -s 4 -d 3 -p cbr -e 210 -c 0 -i 12 -a 0 -x {0.0 3.0 12 ------- null}
+ -t 1.0525 -s 0 -d 1 -p cbr -e 210 -c 0 -i 14 -a 0 -x {0.0 3.0 14 ------- null}
- -t 1.0525 -s 0 -d 1 -p cbr -e 210 -c 0 -i 14 -a 0 -x {0.0 3.0 14 ------- null}
h -t 1.0525 -s 0 -d 1 -p cbr -e 210 -c 0 -i 14 -a 0 -x {0.0 3.0 -1 ------- null}
r -t 1.053646 -s 1 -d 4 -p cbr -e 210 -c 0 -i 13 -a 0 -x {0.0 3.0 13 ------- null}
+ -t 1.053646 -s 4 -d 3 -p cbr -e 210 -c 0 -i 13 -a 0 -x {0.0 3.0 13 ------- null}
- -t 1.053646 -s 4 -d 3 -p cbr -e 210 -c 0 -i 13 -a 0 -x {0.0 3.0 13 ------- null}
h -t 1.053646 -s 4 -d 3 -p cbr -e 210 -c 0 -i 13 -a 0 -x {0.0 3.0 -1 ------- null}
r -t 1.054836 -s 0 -d 1 -p cbr -e 210 -c 0 -i 14 -a 0 -x {0.0 3.0 14 ------- null}
+ -t 1.054836 -s 1 -d 4 -p cbr -e 210 -c 0 -i 14 -a 0 -x {0.0 3.0 14 ------- null}
- -t 1.054836 -s 1 -d 4 -p cbr -e 210 -c 0 -i 14 -a 0 -x {0.0 3.0 14 ------- null}
h -t 1.054836 -s 1 -d 4 -p cbr -e 210 -c 0 -i 14 -a 0 -x {0.0 3.0 -1 ------- null}
r -t 1.0556628 -s 4 -d 3 -p cbr -e 210 -c 0 -i 13 -a 0 -x {0.0 3.0 13 ------- null}
+ -t 1.05625 -s 0 -d 1 -p cbr -e 210 -c 0 -i 15 -a 0 -x {0.0 3.0 15 ------- null}
- -t 1.05625 -s 0 -d 1 -p cbr -e 210 -c 0 -i 15 -a 0 -x {0.0 3.0 15 ------- null}
h -t 1.05625 -s 0 -d 1 -p cbr -e 210 -c 0 -i 15 -a 0 -x {0.0 3.0 -1 ------- null}
r -t 1.057396 -s 1 -d 4 -p cbr -e 210 -c 0 -i 14 -a 0 -x {0.0 3.0 14 ------- null}
+ -t 1.057396 -s 4 -d 3 -p cbr -e 210 -c 0 -i 14 -a 0 -x {0.0 3.0 14 ------- null}
- -t 1.057396 -s 4 -d 3 -p cbr -e 210 -c 0 -i 14 -a 0 -x {0.0 3.0 14 ------- null}
h -t 1.057396 -s 4 -d 3 -p cbr -e 210 -c 0 -i 14 -a 0 -x {0.0 3.0 -1 ------- null}
r -t 1.058586 -s 0 -d 1 -p cbr -e 210 -c 0 -i 15 -a 0 -x {0.0 3.0 15 ------- null}
+ -t 1.058586 -s 1 -d 4 -p cbr -e 210 -c 0 -i 15 -a 0 -x {0.0 3.0 15 ------- null}
- -t 1.058586 -s 1 -d 4 -p cbr -e 210 -c 0 -i 15 -a 0 -x {0.0 3.0 15 ------- null}
h -t 1.058586 -s 1 -d 4 -p cbr -e 210 -c 0 -i 15 -a 0 -x {0.0 3.0 -1 ------- null}
r -t 1.0594128 -s 4 -d 3 -p cbr -e 210 -c 0 -i 14 -a 0 -x {0.0 3.0 14 ------- null}
+ -t 1.06 -s 0 -d 1 -p cbr -e 210 -c 0 -i 16 -a 0 -x {0.0 3.0 16 ------- null}
- -t 1.06 -s 0 -d 1 -p cbr -e 210 -c 0 -i 16 -a 0 -x {0.0 3.0 16 ------- null}
h -t 1.06 -s 0 -d 1 -p cbr -e 210 -c 0 -i 16 -a 0 -x {0.0 3.0 -1 ------- null}
r -t 1.061146 -s 1 -d 4 -p cbr -e 210 -c 0 -i 15 -a 0 -x {0.0 3.0 15 ------- null}
+ -t 1.061146 -s 4 -d 3 -p cbr -e 210 -c 0 -i 15 -a 0 -x {0.0 3.0 15 ------- null}
- -t 1.061146 -s 4 -d 3 -p cbr -e 210 -c 0 -i 15 -a 0 -x {0.0 3.0 15 ------- null}
h -t 1.061146 -s 4 -d 3 -p cbr -e 210 -c 0 -i 15 -a 0 -x {0.0 3.0 -1 ------- null}
r -t 1.062336 -s 0 -d 1 -p cbr -e 210 -c 0 -i 16 -a 0 -x {0.0 3.0 16 ------- null}
+ -t 1.062336 -s 1 -d 4 -p cbr -e 210 -c 0 -i 16 -a 0 -x {0.0 3.0 16 ------- null}
- -t 1.062336 -s 1 -d 4 -p cbr -e 210 -c 0 -i 16 -a 0 -x {0.0 3.0 16 ------- null}
h -t 1.062336 -s 1 -d 4 -p cbr -e 210 -c 0 -i 16 -a 0 -x {0.0 3.0 -1 ------- null}
r -t 1.0631628 -s 4 -d 3 -p cbr -e 210 -c 0 -i 15 -a 0 -x {0.0 3.0 15 ------- null}
+ -t 1.06375 -s 0 -d 1 -p cbr -e 210 -c 0 -i 17 -a 0 -x {0.0 3.0 17 ------- null}
- -t 1.06375 -s 0 -d 1 -p cbr -e 210 -c 0 -i 17 -a 0 -x {0.0 3.0 17 ------- null}
h -t 1.06375 -s 0 -d 1 -p cbr -e 210 -c 0 -i 17 -a 0 -x {0.0 3.0 -1 ------- null}
r -t 1.064896 -s 1 -d 4 -p cbr -e 210 -c 0 -i 16 -a 0 -x {0.0 3.0 16 ------- null}
+ -t 1.064896 -s 4 -d 3 -p cbr -e 210 -c 0 -i 16 -a 0 -x {0.0 3.0 16 ------- null}
- -t 1.064896 -s 4 -d 3 -p cbr -e 210 -c 0 -i 16 -a 0 -x {0.0 3.0 16 ------- null}
h -t 1.064896 -s 4 -d 3 -p cbr -e 210 -c 0 -i 16 -a 0 -x {0.0 3.0 -1 ------- null}
r -t 1.066086 -s 0 -d 1 -p cbr -e 210 -c 0 -i 17 -a 0 -x {0.0 3.0 17 ------- null}
+ -t 1.066086 -s 1 -d 4 -p cbr -e 210 -c 0 -i 17 -a 0 -x {0.0 3.0 17 ------- null}
- -t 1.066086 -s 1 -d 4 -p cbr -e 210 -c 0 -i 17 -a 0 -x {0.0 3.0 17 ------- null}
h -t 1.066086 -s 1 -d 4 -p cbr -e 210 -c 0 -i 17 -a 0 -x {0.0 3.0 -1 ------- null}
r -t 1.0669128 -s 4 -d 3 -p cbr -e 210 -c 0 -i 16 -a 0 -x {0.0 3.0 16 ------- null}
+ -t 1.0675 -s 0 -d 1 -p cbr -e 210 -c 0 -i 18 -a 0 -x {0.0 3.0 18 ------- null}
- -t 1.0675 -s 0 -d 1 -p cbr -e 210 -c 0 -i 18 -a 0 -x {0.0 3.0 18 ------- null}
h -t 1.0675 -s 0 -d 1 -p cbr -e 210 -c 0 -i 18 -a 0 -x {0.0 3.0 -1 ------- null}
r -t 1.068646 -s 1 -d 4 -p cbr -e 210 -c 0 -i 17 -a 0 -x {0.0 3.0 17 ------- null}
+ -t 1.068646 -s 4 -d 3 -p cbr -e 210 -c 0 -i 17 -a 0 -x {0.0 3.0 17 ------- null}
- -t 1.068646 -s 4 -d 3 -p cbr -e 210 -c 0 -i 17 -a 0 -x {0.0 3.0 17 ------- null}
h -t 1.068646 -s 4 -d 3 -p cbr -e 210 -c 0 -i 17 -a 0 -x {0.0 3.0 -1 ------- null}
r -t 1.069836 -s 0 -d 1 -p cbr -e 210 -c 0 -i 18 -a 0 -x {0.0 3.0 18 ------- null}
+ -t 1.069836 -s 1 -d 4 -p cbr -e 210 -c 0 -i 18 -a 0 -x {0.0 3.0 18 ------- null}
- -t 1.069836 -s 1 -d 4 -p cbr -e 210 -c 0 -i 18 -a 0 -x {0.0 3.0 18 ------- null}
h -t 1.069836 -s 1 -d 4 -p cbr -e 210 -c 0 -i 18 -a 0 -x {0.0 3.0 -1 ------- null}
r -t 1.0706628 -s 4 -d 3 -p cbr -e 210 -c 0 -i 17 -a 0 -x {0.0 3.0 17 ------- null}
+ -t 1.07125 -s 0 -d 1 -p cbr -e 210 -c 0 -i 19 -a 0 -x {0.0 3.0 19 ------- null}
- -t 1.07125 -s 0 -d 1 -p cbr -e 210 -c 0 -i 19 -a 0 -x {0.0 3.0 19 ------- null}
h -t 1.07125 -s 0 -d 1 -p cbr -e 210 -c 0 -i 19 -a 0 -x {0.0 3.0 -1 ------- null}
r -t 1.072396 -s 1 -d 4 -p cbr -e 210 -c 0 -i 18 -a 0 -x {0.0 3.0 18 ------- null}
+ -t 1.072396 -s 4 -d 3 -p cbr -e 210 -c 0 -i 18 -a 0 -x {0.0 3.0 18 ------- null}
- -t 1.072396 -s 4 -d 3 -p cbr -e 210 -c 0 -i 18 -a 0 -x {0.0 3.0 18 ------- null}
h -t 1.072396 -s 4 -d 3 -p cbr -e 210 -c 0 -i 18 -a 0 -x {0.0 3.0 -1 ------- null}
r -t 1.073586 -s 0 -d 1 -p cbr -e 210 -c 0 -i 19 -a 0 -x {0.0 3.0 19 ------- null}
+ -t 1.073586 -s 1 -d 4 -p cbr -e 210 -c 0 -i 19 -a 0 -x {0.0 3.0 19 ------- null}
- -t 1.073586 -s 1 -d 4 -p cbr -e 210 -c 0 -i 19 -a 0 -x {0.0 3.0 19 ------- null}
h -t 1.073586 -s 1 -d 4 -p cbr -e 210 -c 0 -i 19 -a 0 -x {0.0 3.0 -1 ------- null}
r -t 1.0744128 -s 4 -d 3 -p cbr -e 210 -c 0 -i 18 -a 0 -x {0.0 3.0 18 ------- null}
+ -t 1.075 -s 0 -d 1 -p cbr -e 210 -c 0 -i 20 -a 0 -x {0.0 3.0 20 ------- null}
- -t 1.075 -s 0 -d 1 -p cbr -e 210 -c 0 -i 20 -a 0 -x {0.0 3.0 20 ------- null}
h -t 1.075 -s 0 -d 1 -p cbr -e 210 -c 0 -i 20 -a 0 -x {0.0 3.0 -1 ------- null}
r -t 1.076146 -s 1 -d 4 -p cbr -e 210 -c 0 -i 19 -a 0 -x {0.0 3.0 19 ------- null}
+ -t 1.076146 -s 4 -d 3 -p cbr -e 210 -c 0 -i 19 -a 0 -x {0.0 3.0 19 ------- null}
- -t 1.076146 -s 4 -d 3 -p cbr -e 210 -c 0 -i 19 -a 0 -x {0.0 3.0 19 ------- null}
h -t 1.076146 -s 4 -d 3 -p cbr -e 210 -c 0 -i 19 -a 0 -x {0.0 3.0 -1 ------- null}
r -t 1.077336 -s 0 -d 1 -p cbr -e 210 -c 0 -i 20 -a 0 -x {0.0 3.0 20 ------- null}
+ -t 1.077336 -s 1 -d 4 -p cbr -e 210 -c 0 -i 20 -a 0 -x {0.0 3.0 20 ------- null}
- -t 1.077336 -s 1 -d 4 -p cbr -e 210 -c 0 -i 20 -a 0 -x {0.0 3.0 20 ------- null}
h -t 1.077336 -s 1 -d 4 -p cbr -e 210 -c 0 -i 20 -a 0 -x {0.0 3.0 -1 ------- null}
r -t 1.0781628 -s 4 -d 3 -p cbr -e 210 -c 0 -i 19 -a 0 -x {0.0 3.0 19 ------- null}
+ -t 1.07875 -s 0 -d 1 -p cbr -e 210 -c 0 -i 21 -a 0 -x {0.0 3.0 21 ------- null}
- -t 1.07875 -s 0 -d 1 -p cbr -e 210 -c 0 -i 21 -a 0 -x {0.0 3.0 21 ------- null}
h -t 1.07875 -s 0 -d 1 -p cbr -e 210 -c 0 -i 21 -a 0 -x {0.0 3.0 -1 ------- null}
r -t 1.079896 -s 1 -d 4 -p cbr -e 210 -c 0 -i 20 -a 0 -x {0.0 3.0 20 ------- null}
+ -t 1.079896 -s 4 -d 3 -p cbr -e 210 -c 0 -i 20 -a 0 -x {0.0 3.0 20 ------- null}
- -t 1.079896 -s 4 -d 3 -p cbr -e 210 -c 0 -i 20 -a 0 -x {0.0 3.0 20 ------- null}
h -t 1.079896 -s 4 -d 3 -p cbr -e 210 -c 0 -i 20 -a 0 -x {0.0 3.0 -1 ------- null}
r -t 1.081086 -s 0 -d 1 -p cbr -e 210 -c 0 -i 21 -a 0 -x {0.0 3.0 21 ------- null}
+ -t 1.081086 -s 1 -d 4 -p cbr -e 210 -c 0 -i 21 -a 0 -x {0.0 3.0 21 ------- null}
- -t 1.081086 -s 1 -d 4 -p cbr -e 210 -c 0 -i 21 -a 0 -x {0.0 3.0 21 ------- null}
h -t 1.081086 -s 1 -d 4 -p cbr -e 210 -c 0 -i 21 -a 0 -x {0.0 3.0 -1 ------- null}
r -t 1.0819128 -s 4 -d 3 -p cbr -e 210 -c 0 -i 20 -a 0 -x {0.0 3.0 20 ------- null}
+ -t 1.0825 -s 0 -d 1 -p cbr -e 210 -c 0 -i 22 -a 0 -x {0.0 3.0 22 ------- null}
- -t 1.0825 -s 0 -d 1 -p cbr -e 210 -c 0 -i 22 -a 0 -x {0.0 3.0 22 ------- null}
h -t 1.0825 -s 0 -d 1 -p cbr -e 210 -c 0 -i 22 -a 0 -x {0.0 3.0 -1 ------- null}
r -t 1.083646 -s 1 -d 4 -p cbr -e 210 -c 0 -i 21 -a 0 -x {0.0 3.0 21 ------- null}
+ -t 1.083646 -s 4 -d 3 -p cbr -e 210 -c 0 -i 21 -a 0 -x {0.0 3.0 21 ------- null}
- -t 1.083646 -s 4 -d 3 -p cbr -e 210 -c 0 -i 21 -a 0 -x {0.0 3.0 21 ------- null}
h -t 1.083646 -s 4 -d 3 -p cbr -e 210 -c 0 -i 21 -a 0 -x {0.0 3.0 -1 ------- null}
r -t 1.084836 -s 0 -d 1 -p cbr -e 210 -c 0 -i 22 -a 0 -x {0.0 3.0 22 ------- null}
+ -t 1.084836 -s 1 -d 4 -p cbr -e 210 -c 0 -i 22 -a 0 -x {0.0 3.0 22 ------- null}
- -t 1.084836 -s 1 -d 4 -p cbr -e 210 -c 0 -i 22 -a 0 -x {0.0 3.0 22 ------- null}
h -t 1.084836 -s 1 -d 4 -p cbr -e 210 -c 0 -i 22 -a 0 -x {0.0 3.0 -1 ------- null}
r -t 1.0856628 -s 4 -d 3 -p cbr -e 210 -c 0 -i 21 -a 0 -x {0.0 3.0 21 ------- null}
+ -t 1.08625 -s 0 -d 1 -p cbr -e 210 -c 0 -i 23 -a 0 -x {0.0 3.0 23 ------- null}
- -t 1.08625 -s 0 -d 1 -p cbr -e 210 -c 0 -i 23 -a 0 -x {0.0 3.0 23 ------- null}
h -t 1.08625 -s 0 -d 1 -p cbr -e 210 -c 0 -i 23 -a 0 -x {0.0 3.0 -1 ------- null}
r -t 1.087396 -s 1 -d 4 -p cbr -e 210 -c 0 -i 22 -a 0 -x {0.0 3.0 22 ------- null}
+ -t 1.087396 -s 4 -d 3 -p cbr -e 210 -c 0 -i 22 -a 0 -x {0.0 3.0 22 ------- null}
- -t 1.087396 -s 4 -d 3 -p cbr -e 210 -c 0 -i 22 -a 0 -x {0.0 3.0 22 ------- null}
h -t 1.087396 -s 4 -d 3 -p cbr -e 210 -c 0 -i 22 -a 0 -x {0.0 3.0 -1 ------- null}
r -t 1.088586 -s 0 -d 1 -p cbr -e 210 -c 0 -i 23 -a 0 -x {0.0 3.0 23 ------- null}
+ -t 1.088586 -s 1 -d 4 -p cbr -e 210 -c 0 -i 23 -a 0 -x {0.0 3.0 23 ------- null}
- -t 1.088586 -s 1 -d 4 -p cbr -e 210 -c 0 -i 23 -a 0 -x {0.0 3.0 23 ------- null}
h -t 1.088586 -s 1 -d 4 -p cbr -e 210 -c 0 -i 23 -a 0 -x {0.0 3.0 -1 ------- null}
r -t 1.0894128 -s 4 -d 3 -p cbr -e 210 -c 0 -i 22 -a 0 -x {0.0 3.0 22 ------- null}
+ -t 1.09 -s 0 -d 1 -p cbr -e 210 -c 0 -i 24 -a 0 -x {0.0 3.0 24 ------- null}
- -t 1.09 -s 0 -d 1 -p cbr -e 210 -c 0 -i 24 -a 0 -x {0.0 3.0 24 ------- null}
h -t 1.09 -s 0 -d 1 -p cbr -e 210 -c 0 -i 24 -a 0 -x {0.0 3.0 -1 ------- null}
r -t 1.091146 -s 1 -d 4 -p cbr -e 210 -c 0 -i 23 -a 0 -x {0.0 3.0 23 ------- null}
+ -t 1.091146 -s 4 -d 3 -p cbr -e 210 -c 0 -i 23 -a 0 -x {0.0 3.0 23 ------- null}
- -t 1.091146 -s 4 -d 3 -p cbr -e 210 -c 0 -i 23 -a 0 -x {0.0 3.0 23 ------- null}
h -t 1.091146 -s 4 -d 3 -p cbr -e 210 -c 0 -i 23 -a 0 -x {0.0 3.0 -1 ------- null}
r -t 1.092336 -s 0 -d 1 -p cbr -e 210 -c 0 -i 24 -a 0 -x {0.0 3.0 24 ------- null}
+ -t 1.092336 -s 1 -d 4 -p cbr -e 210 -c 0 -i 24 -a 0 -x {0.0 3.0 24 ------- null}
- -t 1.092336 -s 1 -d 4 -p cbr -e 210 -c 0 -i 24 -a 0 -x {0.0 3.0 24 ------- null}
h -t 1.092336 -s 1 -d 4 -p cbr -e 210 -c 0 -i 24 -a 0 -x {0.0 3.0 -1 ------- null}
r -t 1.0931628 -s 4 -d 3 -p cbr -e 210 -c 0 -i 23 -a 0 -x {0.0 3.0 23 ------- null}
+ -t 1.09375 -s 0 -d 1 -p cbr -e 210 -c 0 -i 25 -a 0 -x {0.0 3.0 25 ------- null}
- -t 1.09375 -s 0 -d 1 -p cbr -e 210 -c 0 -i 25 -a 0 -x {0.0 3.0 25 ------- null}
h -t 1.09375 -s 0 -d 1 -p cbr -e 210 -c 0 -i 25 -a 0 -x {0.0 3.0 -1 ------- null}
r -t 1.094896 -s 1 -d 4 -p cbr -e 210 -c 0 -i 24 -a 0 -x {0.0 3.0 24 ------- null}
+ -t 1.094896 -s 4 -d 3 -p cbr -e 210 -c 0 -i 24 -a 0 -x {0.0 3.0 24 ------- null}
- -t 1.094896 -s 4 -d 3 -p cbr -e 210 -c 0 -i 24 -a 0 -x {0.0 3.0 24 ------- null}
h -t 1.094896 -s 4 -d 3 -p cbr -e 210 -c 0 -i 24 -a 0 -x {0.0 3.0 -1 ------- null}
r -t 1.096086 -s 0 -d 1 -p cbr -e 210 -c 0 -i 25 -a 0 -x {0.0 3.0 25 ------- null}
+ -t 1.096086 -s 1 -d 4 -p cbr -e 210 -c 0 -i 25 -a 0 -x {0.0 3.0 25 ------- null}
- -t 1.096086 -s 1 -d 4 -p cbr -e 210 -c 0 -i 25 -a 0 -x {0.0 3.0 25 ------- null}
h -t 1.096086 -s 1 -d 4 -p cbr -e 210 -c 0 -i 25 -a 0 -x {0.0 3.0 -1 ------- null}
r -t 1.0969128 -s 4 -d 3 -p cbr -e 210 -c 0 -i 24 -a 0 -x {0.0 3.0 24 ------- null}
+ -t 1.0975 -s 0 -d 1 -p cbr -e 210 -c 0 -i 26 -a 0 -x {0.0 3.0 26 ------- null}
- -t 1.0975 -s 0 -d 1 -p cbr -e 210 -c 0 -i 26 -a 0 -x {0.0 3.0 26 ------- null}
h -t 1.0975 -s 0 -d 1 -p cbr -e 210 -c 0 -i 26 -a 0 -x {0.0 3.0 -1 ------- null}
r -t 1.098646 -s 1 -d 4 -p cbr -e 210 -c 0 -i 25 -a 0 -x {0.0 3.0 25 ------- null}
+ -t 1.098646 -s 4 -d 3 -p cbr -e 210 -c 0 -i 25 -a 0 -x {0.0 3.0 25 ------- null}
- -t 1.098646 -s 4 -d 3 -p cbr -e 210 -c 0 -i 25 -a 0 -x {0.0 3.0 25 ------- null}
h -t 1.098646 -s 4 -d 3 -p cbr -e 210 -c 0 -i 25 -a 0 -x {0.0 3.0 -1 ------- null}
r -t 1.099836 -s 0 -d 1 -p cbr -e 210 -c 0 -i 26 -a 0 -x {0.0 3.0 26 ------- null}
+ -t 1.099836 -s 1 -d 4 -p cbr -e 210 -c 0 -i 26 -a 0 -x {0.0 3.0 26 ------- null}
- -t 1.099836 -s 1 -d 4 -p cbr -e 210 -c 0 -i 26 -a 0 -x {0.0 3.0 26 ------- null}
h -t 1.099836 -s 1 -d 4 -p cbr -e 210 -c 0 -i 26 -a 0 -x {0.0 3.0 -1 ------- null}
r -t 1.1006628 -s 4 -d 3 -p cbr -e 210 -c 0 -i 25 -a 0 -x {0.0 3.0 25 ------- null}
+ -t 1.10125 -s 0 -d 1 -p cbr -e 210 -c 0 -i 27 -a 0 -x {0.0 3.0 27 ------- null}
- -t 1.10125 -s 0 -d 1 -p cbr -e 210 -c 0 -i 27 -a 0 -x {0.0 3.0 27 ------- null}
h -t 1.10125 -s 0 -d 1 -p cbr -e 210 -c 0 -i 27 -a 0 -x {0.0 3.0 -1 ------- null}
r -t 1.102396 -s 1 -d 4 -p cbr -e 210 -c 0 -i 26 -a 0 -x {0.0 3.0 26 ------- null}
+ -t 1.102396 -s 4 -d 3 -p cbr -e 210 -c 0 -i 26 -a 0 -x {0.0 3.0 26 ------- null}
- -t 1.102396 -s 4 -d 3 -p cbr -e 210 -c 0 -i 26 -a 0 -x {0.0 3.0 26 ------- null}
h -t 1.102396 -s 4 -d 3 -p cbr -e 210 -c 0 -i 26 -a 0 -x {0.0 3.0 -1 ------- null}
r -t 1.103586 -s 0 -d 1 -p cbr -e 210 -c 0 -i 27 -a 0 -x {0.0 3.0 27 ------- null}
+ -t 1.103586 -s 1 -d 4 -p cbr -e 210 -c 0 -i 27 -a 0 -x {0.0 3.0 27 ------- null}
- -t 1.103586 -s 1 -d 4 -p cbr -e 210 -c 0 -i 27 -a 0 -x {0.0 3.0 27 ------- null}
h -t 1.103586 -s 1 -d 4 -p cbr -e 210 -c 0 -i 27 -a 0 -x {0.0 3.0 -1 ------- null}
r -t 1.1044128 -s 4 -d 3 -p cbr -e 210 -c 0 -i 26 -a 0 -x {0.0 3.0 26 ------- null}
+ -t 1.105 -s 0 -d 1 -p cbr -e 210 -c 0 -i 28 -a 0 -x {0.0 3.0 28 ------- null}
- -t 1.105 -s 0 -d 1 -p cbr -e 210 -c 0 -i 28 -a 0 -x {0.0 3.0 28 ------- null}
h -t 1.105 -s 0 -d 1 -p cbr -e 210 -c 0 -i 28 -a 0 -x {0.0 3.0 -1 ------- null}
r -t 1.106146 -s 1 -d 4 -p cbr -e 210 -c 0 -i 27 -a 0 -x {0.0 3.0 27 ------- null}
+ -t 1.106146 -s 4 -d 3 -p cbr -e 210 -c 0 -i 27 -a 0 -x {0.0 3.0 27 ------- null}
- -t 1.106146 -s 4 -d 3 -p cbr -e 210 -c 0 -i 27 -a 0 -x {0.0 3.0 27 ------- null}
h -t 1.106146 -s 4 -d 3 -p cbr -e 210 -c 0 -i 27 -a 0 -x {0.0 3.0 -1 ------- null}
r -t 1.107336 -s 0 -d 1 -p cbr -e 210 -c 0 -i 28 -a 0 -x {0.0 3.0 28 ------- null}
+ -t 1.107336 -s 1 -d 4 -p cbr -e 210 -c 0 -i 28 -a 0 -x {0.0 3.0 28 ------- null}
- -t 1.107336 -s 1 -d 4 -p cbr -e 210 -c 0 -i 28 -a 0 -x {0.0 3.0 28 ------- null}
h -t 1.107336 -s 1 -d 4 -p cbr -e 210 -c 0 -i 28 -a 0 -x {0.0 3.0 -1 ------- null}
r -t 1.1081628 -s 4 -d 3 -p cbr -e 210 -c 0 -i 27 -a 0 -x {0.0 3.0 27 ------- null}
+ -t 1.10875 -s 0 -d 1 -p cbr -e 210 -c 0 -i 29 -a 0 -x {0.0 3.0 29 ------- null}
- -t 1.10875 -s 0 -d 1 -p cbr -e 210 -c 0 -i 29 -a 0 -x {0.0 3.0 29 ------- null}
h -t 1.10875 -s 0 -d 1 -p cbr -e 210 -c 0 -i 29 -a 0 -x {0.0 3.0 -1 ------- null}
r -t 1.109896 -s 1 -d 4 -p cbr -e 210 -c 0 -i 28 -a 0 -x {0.0 3.0 28 ------- null}
+ -t 1.109896 -s 4 -d 3 -p cbr -e 210 -c 0 -i 28 -a 0 -x {0.0 3.0 28 ------- null}
- -t 1.109896 -s 4 -d 3 -p cbr -e 210 -c 0 -i 28 -a 0 -x {0.0 3.0 28 ------- null}
h -t 1.109896 -s 4 -d 3 -p cbr -e 210 -c 0 -i 28 -a 0 -x {0.0 3.0 -1 ------- null}
r -t 1.111086 -s 0 -d 1 -p cbr -e 210 -c 0 -i 29 -a 0 -x {0.0 3.0 29 ------- null}
+ -t 1.111086 -s 1 -d 4 -p cbr -e 210 -c 0 -i 29 -a 0 -x {0.0 3.0 29 ------- null}
- -t 1.111086 -s 1 -d 4 -p cbr -e 210 -c 0 -i 29 -a 0 -x {0.0 3.0 29 ------- null}
h -t 1.111086 -s 1 -d 4 -p cbr -e 210 -c 0 -i 29 -a 0 -x {0.0 3.0 -1 ------- null}
r -t 1.1119128 -s 4 -d 3 -p cbr -e 210 -c 0 -i 28 -a 0 -x {0.0 3.0 28 ------- null}
+ -t 1.1125 -s 0 -d 1 -p cbr -e 210 -c 0 -i 30 -a 0 -x {0.0 3.0 30 ------- null}
- -t 1.1125 -s 0 -d 1 -p cbr -e 210 -c 0 -i 30 -a 0 -x {0.0 3.0 30 ------- null}